<?xml version="1.0" encoding="UTF-8"?>

<!-- generated on 2024-03-16 12:39:16 by Eclipse SUMO GUI Version 1.12.0
<configuration xmlns:xsi="http://www.w3.org/2001/XMLSchema-instance" xsi:noNamespaceSchemaLocation="http://sumo.dlr.de/xsd/sumoConfiguration.xsd">

    <input>
        <net-file value="/home/arsh/BTEP/DITLACS_Git/CodeBase/Map/map.net.xml"/>
        <route-files value="/home/arsh/BTEP/DITLACS_Git/CodeBase/Map/map.rou.xml"/>
        <additional-files value="/home/arsh/BTEP/DITLACS_Git/CodeBase/Map/e1.add.xml"/>
    </input>

    <output>
        <tripinfo-output value="tripinfo.xml"/>
    </output>

    <time>
        <begin value="0"/>
    </time>

    <report>
        <verbose value="true"/>
        <no-step-log value="true"/>
    </report>

    <traci_server>
        <remote-port value="8873"/>
    </traci_server>

</configuration>
-->

<tripinfos xmlns:xsi="http://www.w3.org/2001/XMLSchema-instance" xsi:noNamespaceSchemaLocation="http://sumo.dlr.de/xsd/tripinfo_file.xsd">
    <tripinfo id="15" depart="15.00" departLane="-133346859#3_0" departPos="5.10" departSpeed="0.00" departDelay="0.00" arrival="82.00" arrivalLane="-133346859#2_0" arrivalPos="483.90" arrivalSpeed="18.24" duration="67.00" routeLength="1168.23" waitingTime="0.00" waitingCount="0" stopTime="0.00" timeLoss="6.39" rerouteNo="0" devices="tripinfo_15" vType="DEFAULT_VEHTYPE" speedFactor="0.88" vaporized=""/>
</tripinfos>
